<?xml version="1.0" encoding="UTF-8"?>

<!-- generated on 2026-04-01T13:17:15.305403+08:00 by Eclipse SUMO sumo 1.26.0
<sumoConfiguration xmlns:xsi="http://www.w3.org/2001/XMLSchema-instance" xsi:noNamespaceSchemaLocation="http://sumo.dlr.de/xsd/sumoConfiguration.xsd">

    <input>
        <net-file value="D:\FYP\DQNVersion1\SmallTestingMap\map.net.xml"/>
        <route-files value="D:\FYP\DQNVersion1\SmallTestingMap\map.rou.xml,D:\FYP\DQNVersion1\SmallTestingMap\persontrips_scale.rou.xml"/>
    </input>

    <output>
        <tripinfo-output value="D:\FYP\DQNVersion1\SmallTestingMap\tripinfos.xml"/>
        <stop-output value="D:\FYP\DQNVersion1\SmallTestingMap\stopinfos.xml"/>
        <statistic-output value="D:\FYP\DQNVersion1\SmallTestingMap\stats.xml"/>
    </output>

    <time>
        <step-length value="1.0"/>
    </time>

    <report>
        <verbose value="true"/>
        <duration-log.statistics value="true"/>
        <no-step-log value="true"/>
    </report>

    <taxi_device>
        <device.taxi.dispatch-algorithm value="traci"/>
        <device.taxi.idle-algorithm value="stop"/>
    </taxi_device>

    <traci_server>
        <remote-port value="49996"/>
    </traci_server>

</sumoConfiguration>
-->

<tripinfos xmlns:xsi="http://www.w3.org/2001/XMLSchema-instance" xsi:noNamespaceSchemaLocation="http://sumo.dlr.de/xsd/tripinfo_file.xsd">
    <personinfo id="0" depart="0.00" type="DEFAULT_PEDTYPE" speedFactor="1.01" duration="150.00" waitingTime="61.00" timeLoss="6.69" traveltime="89.00">
        <ride waitingTime="61.00" vehicle="t_1" depart="61.00" arrival="150.00" arrivalPos="0.20" duration="89.00" routeLength="213.44" timeLoss="6.69"/>
    </personinfo>
    <personinfo id="1" depart="24.00" type="DEFAULT_PEDTYPE" speedFactor="1.08" duration="148.00" waitingTime="33.00" timeLoss="10.16" traveltime="115.00">
        <ride waitingTime="33.00" vehicle="t_0" depart="57.00" arrival="172.00" arrivalPos="83.20" duration="115.00" routeLength="551.75" timeLoss="10.16"/>
    </personinfo>
    <personinfo id="2" depart="234.00" type="DEFAULT_PEDTYPE" speedFactor="1.12" duration="125.00" waitingTime="31.00" timeLoss="7.38" traveltime="94.00">
        <ride waitingTime="31.00" vehicle="t_1" depart="265.00" arrival="359.00" arrivalPos="0.20" duration="94.00" routeLength="278.79" timeLoss="7.38"/>
    </personinfo>
    <personinfo id="3" depart="431.00" type="DEFAULT_PEDTYPE" speedFactor="0.90" duration="164.00" waitingTime="81.00" timeLoss="4.00" traveltime="83.00">
        <ride waitingTime="81.00" vehicle="t_1" depart="512.00" arrival="595.00" arrivalPos="0.20" duration="83.00" routeLength="178.02" timeLoss="4.00"/>
    </personinfo>
    <personinfo id="4" depart="454.00" type="DEFAULT_PEDTYPE" speedFactor="0.88" duration="161.00" waitingTime="45.00" timeLoss="37.69" traveltime="116.00">
        <ride waitingTime="45.00" vehicle="t_0" depart="499.00" arrival="615.00" arrivalPos="0.20" duration="116.00" routeLength="199.99" timeLoss="37.69"/>
    </personinfo>
    <personinfo id="5" depart="642.00" type="DEFAULT_PEDTYPE" speedFactor="0.91" duration="185.00" waitingTime="84.00" timeLoss="8.03" traveltime="101.00">
        <ride waitingTime="84.00" vehicle="t_1" depart="726.00" arrival="827.00" arrivalPos="0.20" duration="101.00" routeLength="318.68" timeLoss="8.03"/>
    </personinfo>
    <personinfo id="6" depart="839.00" type="DEFAULT_PEDTYPE" speedFactor="1.04" duration="171.00" waitingTime="20.00" timeLoss="8.46" traveltime="151.00">
        <ride waitingTime="20.00" vehicle="t_1" depart="859.00" arrival="1010.00" arrivalPos="83.20" duration="151.00" routeLength="338.58" timeLoss="8.46"/>
    </personinfo>
    <personinfo id="7" depart="919.00" type="DEFAULT_PEDTYPE" speedFactor="0.87" duration="141.00" waitingTime="12.00" timeLoss="15.18" traveltime="129.00">
        <ride waitingTime="12.00" vehicle="t_0" depart="931.00" arrival="1060.00" arrivalPos="78.65" duration="129.00" routeLength="275.65" timeLoss="15.18"/>
    </personinfo>
    <personinfo id="8" depart="945.00" type="DEFAULT_PEDTYPE" speedFactor="1.10" duration="190.00" waitingTime="104.00" timeLoss="6.07" traveltime="86.00">
        <ride waitingTime="104.00" vehicle="t_1" depart="1049.00" arrival="1135.00" arrivalPos="83.20" duration="86.00" routeLength="175.73" timeLoss="6.07"/>
    </personinfo>
    <personinfo id="9" depart="968.00" type="DEFAULT_PEDTYPE" speedFactor="1.01" duration="286.00" waitingTime="165.00" timeLoss="27.96" traveltime="121.00">
        <ride waitingTime="165.00" vehicle="t_0" depart="1133.00" arrival="1254.00" arrivalPos="83.20" duration="121.00" routeLength="352.21" timeLoss="27.96"/>
    </personinfo>
    <personinfo id="11" depart="1068.00" type="DEFAULT_PEDTYPE" speedFactor="0.92" duration="292.00" waitingTime="138.00" timeLoss="47.63" traveltime="154.00">
        <ride waitingTime="138.00" vehicle="t_1" depart="1206.00" arrival="1360.00" arrivalPos="78.65" duration="154.00" routeLength="180.18" timeLoss="47.63"/>
    </personinfo>
    <personinfo id="10" depart="991.00" type="DEFAULT_PEDTYPE" speedFactor="1.10" duration="452.00" waitingTime="311.00" timeLoss="42.19" traveltime="141.00">
        <ride waitingTime="311.00" vehicle="t_0" depart="1302.00" arrival="1443.00" arrivalPos="79.20" duration="141.00" routeLength="450.81" timeLoss="42.19"/>
    </personinfo>
    <personinfo id="12" depart="1266.00" type="DEFAULT_PEDTYPE" speedFactor="1.08" duration="230.00" waitingTime="145.00" timeLoss="4.31" traveltime="85.00">
        <ride waitingTime="145.00" vehicle="t_1" depart="1411.00" arrival="1496.00" arrivalPos="0.20" duration="85.00" routeLength="178.62" timeLoss="4.31"/>
    </personinfo>
    <personinfo id="13" depart="1291.00" type="DEFAULT_PEDTYPE" speedFactor="0.95" duration="362.00" waitingTime="257.00" timeLoss="6.39" traveltime="105.00">
        <ride waitingTime="257.00" vehicle="t_1" depart="1548.00" arrival="1653.00" arrivalPos="78.65" duration="105.00" routeLength="391.64" timeLoss="6.39"/>
    </personinfo>
    <personinfo id="14" depart="1507.00" type="DEFAULT_PEDTYPE" speedFactor="1.02" duration="196.00" waitingTime="93.00" timeLoss="18.30" traveltime="103.00">
        <ride waitingTime="93.00" vehicle="t_0" depart="1600.00" arrival="1703.00" arrivalPos="78.65" duration="103.00" routeLength="276.22" timeLoss="18.30"/>
    </personinfo>
    <personinfo id="17" depart="1586.00" type="DEFAULT_PEDTYPE" speedFactor="1.02" duration="211.00" waitingTime="98.00" timeLoss="18.57" traveltime="113.00">
        <ride waitingTime="98.00" vehicle="t_1" depart="1684.00" arrival="1797.00" arrivalPos="83.20" duration="113.00" routeLength="361.43" timeLoss="18.57"/>
    </personinfo>
    <personinfo id="15" depart="1533.00" type="DEFAULT_PEDTYPE" speedFactor="0.98" duration="337.00" waitingTime="230.00" timeLoss="10.48" traveltime="107.00">
        <ride waitingTime="230.00" vehicle="t_0" depart="1763.00" arrival="1870.00" arrivalPos="78.65" duration="107.00" routeLength="375.67" timeLoss="10.48"/>
    </personinfo>
    <personinfo id="16" depart="1559.00" type="DEFAULT_PEDTYPE" speedFactor="0.97" duration="450.00" waitingTime="151.00" timeLoss="108.61" traveltime="299.00">
        <ride waitingTime="151.00" vehicle="t_0" depart="1710.00" arrival="2009.00" arrivalPos="79.20" duration="299.00" routeLength="671.68" timeLoss="108.61"/>
    </personinfo>
    <personinfo id="18" depart="1663.00" type="DEFAULT_PEDTYPE" speedFactor="0.99" duration="404.00" waitingTime="235.00" timeLoss="54.70" traveltime="169.00">
        <ride waitingTime="235.00" vehicle="t_1" depart="1898.00" arrival="2067.00" arrivalPos="83.20" duration="169.00" routeLength="577.45" timeLoss="54.70"/>
    </personinfo>
    <personinfo id="20" depart="1953.00" type="DEFAULT_PEDTYPE" speedFactor="0.88" duration="227.00" waitingTime="134.00" timeLoss="5.93" traveltime="93.00">
        <ride waitingTime="134.00" vehicle="t_1" depart="2087.00" arrival="2180.00" arrivalPos="83.20" duration="93.00" routeLength="266.09" timeLoss="5.93"/>
    </personinfo>
    <personinfo id="19" depart="1736.00" type="DEFAULT_PEDTYPE" speedFactor="1.01" duration="484.00" waitingTime="341.00" timeLoss="26.20" traveltime="143.00">
        <ride waitingTime="341.00" vehicle="t_0" depart="2077.00" arrival="2220.00" arrivalPos="83.20" duration="143.00" routeLength="403.88" timeLoss="26.20"/>
    </personinfo>
    <personinfo id="21" depart="2159.00" type="DEFAULT_PEDTYPE" speedFactor="1.03" duration="241.00" waitingTime="145.00" timeLoss="7.67" traveltime="96.00">
        <ride waitingTime="145.00" vehicle="t_0" depart="2304.00" arrival="2400.00" arrivalPos="0.20" duration="96.00" routeLength="299.88" timeLoss="7.67"/>
    </personinfo>
    <personinfo id="22" depart="2182.00" type="DEFAULT_PEDTYPE" speedFactor="0.89" duration="278.00" waitingTime="86.00" timeLoss="55.29" traveltime="192.00">
        <ride waitingTime="86.00" vehicle="t_1" depart="2268.00" arrival="2460.00" arrivalPos="83.20" duration="192.00" routeLength="476.05" timeLoss="55.29"/>
    </personinfo>
    <personinfo id="24" depart="2470.00" type="DEFAULT_PEDTYPE" speedFactor="0.91" duration="131.00" waitingTime="30.00" timeLoss="12.26" traveltime="101.00">
        <ride waitingTime="30.00" vehicle="t_0" depart="2500.00" arrival="2601.00" arrivalPos="79.20" duration="101.00" routeLength="352.29" timeLoss="12.26"/>
    </personinfo>
    <personinfo id="23" depart="2390.00" type="DEFAULT_PEDTYPE" speedFactor="1.04" duration="308.00" waitingTime="100.00" timeLoss="94.58" traveltime="208.00">
        <ride waitingTime="100.00" vehicle="t_1" depart="2490.00" arrival="2698.00" arrivalPos="83.20" duration="208.00" routeLength="577.43" timeLoss="94.58"/>
    </personinfo>
    <personinfo id="25" depart="2496.00" type="DEFAULT_PEDTYPE" speedFactor="1.05" duration="334.00" waitingTime="167.00" timeLoss="73.97" traveltime="167.00">
        <ride waitingTime="167.00" vehicle="t_0" depart="2663.00" arrival="2830.00" arrivalPos="0.20" duration="167.00" routeLength="287.46" timeLoss="73.97"/>
    </personinfo>
    <personinfo id="26" depart="2568.00" type="DEFAULT_PEDTYPE" speedFactor="1.21" duration="342.00" waitingTime="165.00" timeLoss="40.01" traveltime="177.00">
        <ride waitingTime="165.00" vehicle="t_1" depart="2733.00" arrival="2910.00" arrivalPos="79.20" duration="177.00" routeLength="453.10" timeLoss="40.01"/>
    </personinfo>
    <personinfo id="27" depart="2760.00" type="DEFAULT_PEDTYPE" speedFactor="1.10" duration="345.00" waitingTime="173.00" timeLoss="75.01" traveltime="172.00">
        <ride waitingTime="173.00" vehicle="t_0" depart="2933.00" arrival="3105.00" arrivalPos="78.65" duration="172.00" routeLength="386.53" timeLoss="75.01"/>
    </personinfo>
    <personinfo id="28" depart="2841.00" type="DEFAULT_PEDTYPE" speedFactor="0.99" duration="289.00" waitingTime="135.00" timeLoss="39.85" traveltime="154.00">
        <ride waitingTime="135.00" vehicle="t_1" depart="2976.00" arrival="3130.00" arrivalPos="79.20" duration="154.00" routeLength="434.33" timeLoss="39.85"/>
    </personinfo>
    <personinfo id="30" depart="3067.00" type="DEFAULT_PEDTYPE" speedFactor="0.94" duration="243.00" waitingTime="134.00" timeLoss="7.89" traveltime="109.00">
        <ride waitingTime="134.00" vehicle="t_1" depart="3201.00" arrival="3310.00" arrivalPos="78.65" duration="109.00" routeLength="449.63" timeLoss="7.89"/>
    </personinfo>
    <personinfo id="29" depart="2865.00" type="DEFAULT_PEDTYPE" speedFactor="0.91" duration="475.00" waitingTime="291.00" timeLoss="68.60" traveltime="184.00">
        <ride waitingTime="291.00" vehicle="t_0" depart="3156.00" arrival="3340.00" arrivalPos="83.20" duration="184.00" routeLength="476.94" timeLoss="68.60"/>
    </personinfo>
    <personinfo id="31" depart="3148.00" type="DEFAULT_PEDTYPE" speedFactor="0.90" duration="289.00" waitingTime="195.00" timeLoss="6.46" traveltime="94.00">
        <ride waitingTime="195.00" vehicle="t_1" depart="3343.00" arrival="3437.00" arrivalPos="78.65" duration="94.00" routeLength="264.81" timeLoss="6.46"/>
    </personinfo>
    <personinfo id="32" depart="3175.00" type="DEFAULT_PEDTYPE" speedFactor="1.00" duration="364.00" waitingTime="199.00" timeLoss="71.40" traveltime="165.00">
        <ride waitingTime="199.00" vehicle="t_0" depart="3374.00" arrival="3539.00" arrivalPos="78.65" duration="165.00" routeLength="368.79" timeLoss="71.40"/>
    </personinfo>
    <personinfo id="33" depart="3244.00" type="DEFAULT_PEDTYPE" speedFactor="1.10" duration="435.00" waitingTime="327.00" timeLoss="7.49" traveltime="108.00">
        <ride waitingTime="327.00" vehicle="t_1" depart="3571.00" arrival="3679.00" arrivalPos="78.65" duration="108.00" routeLength="451.25" timeLoss="7.49"/>
    </personinfo>
    <personinfo id="34" depart="3270.00" type="DEFAULT_PEDTYPE" speedFactor="1.01" duration="417.00" waitingTime="298.00" timeLoss="26.56" traveltime="119.00">
        <ride waitingTime="298.00" vehicle="t_0" depart="3568.00" arrival="3687.00" arrivalPos="83.20" duration="119.00" routeLength="361.50" timeLoss="26.56"/>
    </personinfo>
    <personinfo id="36" depart="3566.00" type="DEFAULT_PEDTYPE" speedFactor="0.92" duration="298.00" waitingTime="176.00" timeLoss="25.77" traveltime="122.00">
        <ride waitingTime="176.00" vehicle="t_0" depart="3742.00" arrival="3864.00" arrivalPos="78.65" duration="122.00" routeLength="387.95" timeLoss="25.77"/>
    </personinfo>
    <personinfo id="35" depart="3346.00" type="DEFAULT_PEDTYPE" speedFactor="1.11" duration="561.00" waitingTime="443.00" timeLoss="32.19" traveltime="118.00">
        <ride waitingTime="443.00" vehicle="t_1" depart="3789.00" arrival="3907.00" arrivalPos="79.20" duration="118.00" routeLength="261.00" timeLoss="32.19"/>
    </personinfo>
    <personinfo id="38" depart="3965.00" type="DEFAULT_PEDTYPE" speedFactor="1.24" duration="206.00" waitingTime="42.00" timeLoss="75.25" traveltime="164.00">
        <ride waitingTime="42.00" vehicle="t_1" depart="4007.00" arrival="4171.00" arrivalPos="79.20" duration="164.00" routeLength="280.67" timeLoss="75.25"/>
    </personinfo>
    <personinfo id="37" depart="3780.00" type="DEFAULT_PEDTYPE" speedFactor="0.88" duration="400.00" waitingTime="213.00" timeLoss="50.28" traveltime="187.00">
        <ride waitingTime="213.00" vehicle="t_0" depart="3993.00" arrival="4180.00" arrivalPos="83.20" duration="187.00" routeLength="790.03" timeLoss="50.28"/>
    </personinfo>
    <personinfo id="39" depart="4044.00" type="DEFAULT_PEDTYPE" speedFactor="1.15" duration="261.00" waitingTime="159.00" timeLoss="14.70" traveltime="102.00">
        <ride waitingTime="159.00" vehicle="t_1" depart="4203.00" arrival="4305.00" arrivalPos="83.20" duration="102.00" routeLength="262.22" timeLoss="14.70"/>
    </personinfo>
    <personinfo id="40" depart="4118.00" type="DEFAULT_PEDTYPE" speedFactor="1.06" duration="239.00" waitingTime="138.00" timeLoss="16.97" traveltime="101.00">
        <ride waitingTime="138.00" vehicle="t_0" depart="4256.00" arrival="4357.00" arrivalPos="0.20" duration="101.00" routeLength="255.31" timeLoss="16.97"/>
    </personinfo>
    <personinfo id="42" depart="4358.00" type="DEFAULT_PEDTYPE" speedFactor="1.02" duration="217.00" waitingTime="34.00" timeLoss="74.47" traveltime="183.00">
        <ride waitingTime="34.00" vehicle="t_0" depart="4392.00" arrival="4575.00" arrivalPos="78.65" duration="183.00" routeLength="564.37" timeLoss="74.47"/>
    </personinfo>
    <personinfo id="41" depart="4333.00" type="DEFAULT_PEDTYPE" speedFactor="1.02" duration="272.00" waitingTime="175.00" timeLoss="8.61" traveltime="97.00">
        <ride waitingTime="175.00" vehicle="t_1" depart="4508.00" arrival="4605.00" arrivalPos="0.20" duration="97.00" routeLength="290.23" timeLoss="8.61"/>
    </personinfo>
    <personinfo id="43" depart="4438.00" type="DEFAULT_PEDTYPE" speedFactor="0.96" duration="312.00" waitingTime="168.00" timeLoss="22.03" traveltime="144.00">
        <ride waitingTime="168.00" vehicle="t_0" depart="4606.00" arrival="4750.00" arrivalPos="79.20" duration="144.00" routeLength="206.85" timeLoss="22.03"/>
    </personinfo>
    <personinfo id="44" depart="4461.00" type="DEFAULT_PEDTYPE" speedFactor="0.94" duration="316.00" waitingTime="180.00" timeLoss="31.97" traveltime="136.00">
        <ride waitingTime="180.00" vehicle="t_1" depart="4641.00" arrival="4777.00" arrivalPos="78.65" duration="136.00" routeLength="464.29" timeLoss="31.97"/>
    </personinfo>
    <personinfo id="45" depart="4680.00" type="DEFAULT_PEDTYPE" speedFactor="1.20" duration="340.00" waitingTime="107.00" timeLoss="86.80" traveltime="233.00">
        <ride waitingTime="107.00" vehicle="t_0" depart="4787.00" arrival="5020.00" arrivalPos="83.20" duration="233.00" routeLength="553.34" timeLoss="86.80"/>
    </personinfo>
    <personinfo id="46" depart="4872.00" type="DEFAULT_PEDTYPE" speedFactor="0.80" duration="218.00" waitingTime="86.00" timeLoss="7.84" traveltime="132.00">
        <ride waitingTime="86.00" vehicle="t_1" depart="4958.00" arrival="5090.00" arrivalPos="0.20" duration="132.00" routeLength="314.73" timeLoss="7.84"/>
    </personinfo>
    <personinfo id="47" depart="4953.00" type="DEFAULT_PEDTYPE" speedFactor="1.08" duration="263.00" waitingTime="115.00" timeLoss="54.74" traveltime="148.00">
        <ride waitingTime="115.00" vehicle="t_0" depart="5068.00" arrival="5216.00" arrivalPos="83.20" duration="148.00" routeLength="372.94" timeLoss="54.74"/>
    </personinfo>
    <personinfo id="48" depart="5024.00" type="DEFAULT_PEDTYPE" speedFactor="1.05" duration="228.00" waitingTime="124.00" timeLoss="10.27" traveltime="104.00">
        <ride waitingTime="124.00" vehicle="t_1" depart="5148.00" arrival="5252.00" arrivalPos="79.20" duration="104.00" routeLength="340.13" timeLoss="10.27"/>
    </personinfo>
    <personinfo id="49" depart="5047.00" type="DEFAULT_PEDTYPE" speedFactor="0.87" duration="293.00" waitingTime="189.00" timeLoss="8.46" traveltime="104.00">
        <ride waitingTime="189.00" vehicle="t_0" depart="5236.00" arrival="5340.00" arrivalPos="78.65" duration="104.00" routeLength="376.47" timeLoss="8.46"/>
    </personinfo>
    <personinfo id="51" depart="5098.00" type="DEFAULT_PEDTYPE" speedFactor="1.07" duration="302.00" waitingTime="195.00" timeLoss="4.41" traveltime="107.00">
        <ride waitingTime="195.00" vehicle="t_1" depart="5293.00" arrival="5400.00" arrivalPos="79.20" duration="107.00" routeLength="279.47" timeLoss="4.41"/>
    </personinfo>
    <personinfo id="50" depart="5075.00" type="DEFAULT_PEDTYPE" speedFactor="1.19" duration="446.00" waitingTime="294.00" timeLoss="57.31" traveltime="152.00">
        <ride waitingTime="294.00" vehicle="t_0" depart="5369.00" arrival="5521.00" arrivalPos="83.20" duration="152.00" routeLength="363.56" timeLoss="57.31"/>
    </personinfo>
    <personinfo id="53" depart="5149.00" type="DEFAULT_PEDTYPE" speedFactor="0.92" duration="388.00" waitingTime="304.00" timeLoss="4.10" traveltime="84.00">
        <ride waitingTime="304.00" vehicle="t_1" depart="5453.00" arrival="5537.00" arrivalPos="78.65" duration="84.00" routeLength="162.25" timeLoss="4.10"/>
    </personinfo>
    <personinfo id="52" depart="5122.00" type="DEFAULT_PEDTYPE" speedFactor="1.07" duration="543.00" waitingTime="423.00" timeLoss="24.89" traveltime="120.00">
        <ride waitingTime="423.00" vehicle="t_1" depart="5545.00" arrival="5665.00" arrivalPos="78.65" duration="120.00" routeLength="362.23" timeLoss="24.89"/>
    </personinfo>
    <personinfo id="55" depart="5543.00" type="DEFAULT_PEDTYPE" speedFactor="0.91" duration="216.00" waitingTime="97.00" timeLoss="30.14" traveltime="119.00">
        <ride waitingTime="97.00" vehicle="t_0" depart="5640.00" arrival="5759.00" arrivalPos="78.65" duration="119.00" routeLength="299.43" timeLoss="30.14"/>
    </personinfo>
    <personinfo id="54" depart="5337.00" type="DEFAULT_PEDTYPE" speedFactor="1.02" duration="482.00" waitingTime="402.00" timeLoss="2.58" traveltime="80.00">
        <ride waitingTime="402.00" vehicle="t_1" depart="5739.00" arrival="5819.00" arrivalPos="83.20" duration="80.00" routeLength="164.04" timeLoss="2.58"/>
    </personinfo>
    <personinfo id="56" depart="5612.00" type="DEFAULT_PEDTYPE" speedFactor="0.93" duration="344.00" waitingTime="202.00" timeLoss="27.67" traveltime="142.00">
        <ride waitingTime="202.00" vehicle="t_0" depart="5814.00" arrival="5956.00" arrivalPos="83.20" duration="142.00" routeLength="688.74" timeLoss="27.67"/>
    </personinfo>
    <personinfo id="57" depart="5680.00" type="DEFAULT_PEDTYPE" speedFactor="0.88" duration="307.00" waitingTime="211.00" timeLoss="7.31" traveltime="96.00">
        <ride waitingTime="211.00" vehicle="t_1" depart="5891.00" arrival="5987.00" arrivalPos="0.20" duration="96.00" routeLength="282.53" timeLoss="7.31"/>
    </personinfo>
    <personinfo id="58" depart="5869.00" type="DEFAULT_PEDTYPE" speedFactor="0.94" duration="259.00" waitingTime="119.00" timeLoss="36.50" traveltime="140.00">
        <ride waitingTime="119.00" vehicle="t_0" depart="5988.00" arrival="6128.00" arrivalPos="83.20" duration="140.00" routeLength="555.71" timeLoss="36.50"/>
    </personinfo>
    <personinfo id="59" depart="6051.00" type="DEFAULT_PEDTYPE" speedFactor="0.99" duration="154.00" waitingTime="12.00" timeLoss="42.11" traveltime="142.00">
        <ride waitingTime="12.00" vehicle="t_1" depart="6063.00" arrival="6205.00" arrivalPos="83.20" duration="142.00" routeLength="461.42" timeLoss="42.11"/>
    </personinfo>
    <personinfo id="60" depart="6120.00" type="DEFAULT_PEDTYPE" speedFactor="0.98" duration="120.00" waitingTime="38.00" timeLoss="4.76" traveltime="82.00">
        <ride waitingTime="38.00" vehicle="t_0" depart="6158.00" arrival="6240.00" arrivalPos="0.20" duration="82.00" routeLength="176.31" timeLoss="4.76"/>
    </personinfo>
    <personinfo id="61" depart="6319.00" type="DEFAULT_PEDTYPE" speedFactor="0.95" duration="198.00" waitingTime="61.00" timeLoss="38.36" traveltime="137.00">
        <ride waitingTime="61.00" vehicle="t_0" depart="6380.00" arrival="6517.00" arrivalPos="83.20" duration="137.00" routeLength="457.26" timeLoss="38.36"/>
    </personinfo>
    <personinfo id="62" depart="6536.00" type="DEFAULT_PEDTYPE" speedFactor="1.12" duration="204.00" waitingTime="24.00" timeLoss="58.10" traveltime="180.00">
        <ride waitingTime="24.00" vehicle="t_1" depart="6560.00" arrival="6740.00" arrivalPos="83.20" duration="180.00" routeLength="350.26" timeLoss="58.10"/>
    </personinfo>
    <personinfo id="63" depart="6608.00" type="DEFAULT_PEDTYPE" speedFactor="1.02" duration="212.00" waitingTime="40.00" timeLoss="49.31" traveltime="172.00">
        <ride waitingTime="40.00" vehicle="t_0" depart="6648.00" arrival="6820.00" arrivalPos="78.65" duration="172.00" routeLength="452.07" timeLoss="49.31"/>
    </personinfo>
    <personinfo id="64" depart="6678.00" type="DEFAULT_PEDTYPE" speedFactor="0.97" duration="210.00" waitingTime="107.00" timeLoss="7.18" traveltime="103.00">
        <ride waitingTime="107.00" vehicle="t_1" depart="6785.00" arrival="6888.00" arrivalPos="79.20" duration="103.00" routeLength="376.18" timeLoss="7.18"/>
    </personinfo>
    <personinfo id="65" depart="6751.00" type="DEFAULT_PEDTYPE" speedFactor="1.13" duration="269.00" waitingTime="106.00" timeLoss="23.33" traveltime="163.00">
        <ride waitingTime="106.00" vehicle="t_0" depart="6857.00" arrival="7020.00" arrivalPos="79.20" duration="163.00" routeLength="305.39" timeLoss="23.33"/>
    </personinfo>
    <personinfo id="66" depart="6933.00" type="DEFAULT_PEDTYPE" speedFactor="1.00" duration="206.00" waitingTime="49.00" timeLoss="62.60" traveltime="157.00">
        <ride waitingTime="49.00" vehicle="t_1" depart="6982.00" arrival="7139.00" arrivalPos="78.65" duration="157.00" routeLength="342.25" timeLoss="62.60"/>
    </personinfo>
    <personinfo id="67" depart="6956.00" type="DEFAULT_PEDTYPE" speedFactor="1.21" duration="234.00" waitingTime="95.00" timeLoss="11.41" traveltime="139.00">
        <ride waitingTime="95.00" vehicle="t_0" depart="7051.00" arrival="7190.00" arrivalPos="79.20" duration="139.00" routeLength="246.31" timeLoss="11.41"/>
    </personinfo>
    <personinfo id="69" depart="7049.00" type="DEFAULT_PEDTYPE" speedFactor="0.96" duration="285.00" waitingTime="186.00" timeLoss="8.63" traveltime="99.00">
        <ride waitingTime="186.00" vehicle="t_0" depart="7235.00" arrival="7334.00" arrivalPos="78.65" duration="99.00" routeLength="299.46" timeLoss="8.63"/>
    </personinfo>
    <personinfo id="68" depart="6979.00" type="DEFAULT_PEDTYPE" speedFactor="1.14" duration="431.00" waitingTime="328.00" timeLoss="8.26" traveltime="103.00">
        <ride waitingTime="328.00" vehicle="t_1" depart="7307.00" arrival="7410.00" arrivalPos="79.20" duration="103.00" routeLength="376.34" timeLoss="8.26"/>
    </personinfo>
    <personinfo id="70" depart="7120.00" type="DEFAULT_PEDTYPE" speedFactor="0.82" duration="378.00" waitingTime="239.00" timeLoss="40.78" traveltime="139.00">
        <ride waitingTime="239.00" vehicle="t_0" depart="7359.00" arrival="7498.00" arrivalPos="83.20" duration="139.00" routeLength="442.73" timeLoss="40.78"/>
    </personinfo>
    <personinfo id="71" depart="7304.00" type="DEFAULT_PEDTYPE" speedFactor="1.06" duration="231.00" waitingTime="145.00" timeLoss="5.99" traveltime="86.00">
        <ride waitingTime="145.00" vehicle="t_1" depart="7449.00" arrival="7535.00" arrivalPos="83.20" duration="86.00" routeLength="199.42" timeLoss="5.99"/>
    </personinfo>
    <personinfo id="73" depart="7355.00" type="DEFAULT_PEDTYPE" speedFactor="1.04" duration="333.00" waitingTime="189.00" timeLoss="30.00" traveltime="144.00">
        <ride waitingTime="189.00" vehicle="t_0" depart="7544.00" arrival="7688.00" arrivalPos="83.20" duration="144.00" routeLength="629.77" timeLoss="30.00"/>
    </personinfo>
    <personinfo id="72" depart="7332.00" type="DEFAULT_PEDTYPE" speedFactor="0.88" duration="458.00" waitingTime="281.00" timeLoss="49.18" traveltime="177.00">
        <ride waitingTime="281.00" vehicle="t_1" depart="7613.00" arrival="7790.00" arrivalPos="83.20" duration="177.00" routeLength="468.83" timeLoss="49.18"/>
    </personinfo>
    <personinfo id="74" depart="7382.00" type="DEFAULT_PEDTYPE" speedFactor="0.97" duration="442.00" waitingTime="338.00" timeLoss="18.49" traveltime="104.00">
        <ride waitingTime="338.00" vehicle="t_0" depart="7720.00" arrival="7824.00" arrivalPos="78.65" duration="104.00" routeLength="256.14" timeLoss="18.49"/>
    </personinfo>
    <personinfo id="76" depart="7521.00" type="DEFAULT_PEDTYPE" speedFactor="1.00" duration="437.00" waitingTime="313.00" timeLoss="39.13" traveltime="124.00">
        <ride waitingTime="313.00" vehicle="t_0" depart="7834.00" arrival="7958.00" arrivalPos="83.20" duration="124.00" routeLength="253.82" timeLoss="39.13"/>
    </personinfo>
    <personinfo id="75" depart="7449.00" type="DEFAULT_PEDTYPE" speedFactor="1.13" duration="511.00" waitingTime="199.00" timeLoss="106.99" traveltime="312.00">
        <ride waitingTime="199.00" vehicle="t_1" depart="7648.00" arrival="7960.00" arrivalPos="79.20" duration="312.00" routeLength="670.29" timeLoss="106.99"/>
    </personinfo>
    <personinfo id="78" depart="7751.00" type="DEFAULT_PEDTYPE" speedFactor="1.07" duration="396.00" waitingTime="269.00" timeLoss="13.61" traveltime="127.00">
        <ride waitingTime="269.00" vehicle="t_0" depart="8020.00" arrival="8147.00" arrivalPos="83.20" duration="127.00" routeLength="656.15" timeLoss="13.61"/>
    </personinfo>
    <personinfo id="77" depart="7727.00" type="DEFAULT_PEDTYPE" speedFactor="1.09" duration="503.00" waitingTime="318.00" timeLoss="52.25" traveltime="185.00">
        <ride waitingTime="318.00" vehicle="t_1" depart="8045.00" arrival="8230.00" arrivalPos="83.20" duration="185.00" routeLength="648.07" timeLoss="52.25"/>
    </personinfo>
    <personinfo id="79" depart="7953.00" type="DEFAULT_PEDTYPE" speedFactor="0.75" duration="337.00" waitingTime="261.00" timeLoss="3.14" traveltime="76.00">
        <ride waitingTime="261.00" vehicle="t_0" depart="8214.00" arrival="8290.00" arrivalPos="78.65" duration="76.00" routeLength="94.91" timeLoss="3.14"/>
    </personinfo>
    <personinfo id="80" depart="7976.00" type="DEFAULT_PEDTYPE" speedFactor="0.86" duration="457.00" waitingTime="354.00" timeLoss="9.45" traveltime="103.00">
        <ride waitingTime="354.00" vehicle="t_0" depart="8330.00" arrival="8433.00" arrivalPos="79.20" duration="103.00" routeLength="372.70" timeLoss="9.45"/>
    </personinfo>
    <personinfo id="81" depart="8162.00" type="DEFAULT_PEDTYPE" speedFactor="0.96" duration="327.00" waitingTime="188.00" timeLoss="37.68" traveltime="139.00">
        <ride waitingTime="188.00" vehicle="t_1" depart="8350.00" arrival="8489.00" arrivalPos="78.65" duration="139.00" routeLength="447.16" timeLoss="37.68"/>
    </personinfo>
    <personinfo id="82" depart="8185.00" type="DEFAULT_PEDTYPE" speedFactor="1.05" duration="381.00" waitingTime="280.00" timeLoss="10.11" traveltime="101.00">
        <ride waitingTime="280.00" vehicle="t_0" depart="8465.00" arrival="8566.00" arrivalPos="0.20" duration="101.00" routeLength="278.60" timeLoss="10.11"/>
    </personinfo>
    <personinfo id="84" depart="8413.00" type="DEFAULT_PEDTYPE" speedFactor="0.99" duration="239.00" waitingTime="91.00" timeLoss="41.04" traveltime="148.00">
        <ride waitingTime="91.00" vehicle="t_1" depart="8504.00" arrival="8652.00" arrivalPos="78.65" duration="148.00" routeLength="539.39" timeLoss="41.04"/>
    </personinfo>
    <personinfo id="83" depart="8210.00" type="DEFAULT_PEDTYPE" speedFactor="1.00" duration="469.00" waitingTime="286.00" timeLoss="29.21" traveltime="183.00">
        <ride waitingTime="286.00" vehicle="t_0" depart="8496.00" arrival="8679.00" arrivalPos="79.20" duration="183.00" routeLength="271.40" timeLoss="29.21"/>