<?xml version="1.0" encoding="UTF-8"?>

<!-- generated on 2026-03-22T16:30:28.953540+08:00 by Eclipse SUMO GUI 1.26.0
<sumoConfiguration xmlns:xsi="http://www.w3.org/2001/XMLSchema-instance" xsi:noNamespaceSchemaLocation="http://sumo.dlr.de/xsd/sumoConfiguration.xsd">

    <input>
        <net-file value="D:\FYP\FYP-DRT\SmallTestingMapGreedy\map.net.xml"/>
        <route-files value="D:\FYP\FYP-DRT\SmallTestingMapGreedy\map.rou.xml,D:\FYP\FYP-DRT\SmallTestingMapGreedy\persontrips_scale.rou.xml"/>
    </input>

    <output>
        <tripinfo-output value="D:\FYP\FYP-DRT\SmallTestingMapGreedy\tripinfos.xml"/>
        <stop-output value="D:\FYP\FYP-DRT\SmallTestingMapGreedy\stopinfos.xml"/>
        <statistic-output value="D:\FYP\FYP-DRT\SmallTestingMapGreedy\stats.xml"/>
    </output>

    <report>
        <verbose value="true"/>
        <duration-log.statistics value="true"/>
        <no-step-log value="true"/>
    </report>

    <taxi_device>
        <device.taxi.dispatch-algorithm value="greedyShared"/>
    </taxi_device>

</sumoConfiguration>
-->

<tripinfos xmlns:xsi="http://www.w3.org/2001/XMLSchema-instance" xsi:noNamespaceSchemaLocation="http://sumo.dlr.de/xsd/tripinfo_file.xsd">
    <personinfo id="0" depart="0.00" type="DEFAULT_PEDTYPE" speedFactor="1.01" duration="243.00" waitingTime="154.00" timeLoss="6.69" traveltime="89.00">
        <ride waitingTime="154.00" vehicle="t_1" depart="154.00" arrival="243.00" arrivalPos="0.20" duration="89.00" routeLength="213.44" timeLoss="6.69"/>
    </personinfo>
    <personinfo id="1" depart="24.00" type="DEFAULT_PEDTYPE" speedFactor="1.08" duration="239.00" waitingTime="83.00" timeLoss="50.04" traveltime="156.00">
        <ride waitingTime="83.00" vehicle="t_0" depart="107.00" arrival="263.00" arrivalPos="83.20" duration="156.00" routeLength="551.75" timeLoss="50.04"/>
    </personinfo>
    <personinfo id="2" depart="234.00" type="DEFAULT_PEDTYPE" speedFactor="1.03" duration="203.00" waitingTime="91.00" timeLoss="25.38" traveltime="112.00">
        <ride waitingTime="91.00" vehicle="t_1" depart="325.00" arrival="437.00" arrivalPos="0.20" duration="112.00" routeLength="278.80" timeLoss="25.38"/>
    </personinfo>
    <personinfo id="3" depart="431.00" type="DEFAULT_PEDTYPE" speedFactor="0.83" duration="163.00" waitingTime="80.00" timeLoss="3.98" traveltime="83.00">
        <ride waitingTime="80.00" vehicle="t_1" depart="511.00" arrival="594.00" arrivalPos="0.20" duration="83.00" routeLength="178.04" timeLoss="3.98"/>
    </personinfo>
    <personinfo id="4" depart="454.00" type="DEFAULT_PEDTYPE" speedFactor="1.05" duration="192.00" waitingTime="106.00" timeLoss="6.53" traveltime="86.00">
        <ride waitingTime="106.00" vehicle="t_0" depart="560.00" arrival="646.00" arrivalPos="0.20" duration="86.00" routeLength="200.01" timeLoss="6.53"/>
    </personinfo>
    <personinfo id="5" depart="642.00" type="DEFAULT_PEDTYPE" speedFactor="0.89" duration="185.00" waitingTime="84.00" timeLoss="7.96" traveltime="101.00">
        <ride waitingTime="84.00" vehicle="t_1" depart="726.00" arrival="827.00" arrivalPos="0.20" duration="101.00" routeLength="318.70" timeLoss="7.96"/>
    </personinfo>
    <personinfo id="6" depart="839.00" type="DEFAULT_PEDTYPE" speedFactor="0.94" duration="120.00" waitingTime="20.00" timeLoss="7.91" traveltime="100.00">
        <ride waitingTime="20.00" vehicle="t_1" depart="859.00" arrival="959.00" arrivalPos="83.20" duration="100.00" routeLength="338.62" timeLoss="7.91"/>
    </personinfo>
    <personinfo id="7" depart="919.00" type="DEFAULT_PEDTYPE" speedFactor="0.86" duration="156.00" waitingTime="54.00" timeLoss="8.25" traveltime="102.00">
        <ride waitingTime="54.00" vehicle="t_0" depart="973.00" arrival="1075.00" arrivalPos="78.65" duration="102.00" routeLength="275.64" timeLoss="8.25"/>
    </personinfo>
    <personinfo id="9" depart="968.00" type="DEFAULT_PEDTYPE" speedFactor="1.03" duration="199.00" waitingTime="96.00" timeLoss="7.92" traveltime="103.00">
        <ride waitingTime="96.00" vehicle="t_1" depart="1064.00" arrival="1167.00" arrivalPos="83.20" duration="103.00" routeLength="352.21" timeLoss="7.92"/>
    </personinfo>
    <personinfo id="8" depart="945.00" type="DEFAULT_PEDTYPE" speedFactor="1.09" duration="254.00" waitingTime="54.00" timeLoss="53.51" traveltime="200.00">
        <ride waitingTime="54.00" vehicle="t_0" depart="999.00" arrival="1199.00" arrivalPos="83.20" duration="200.00" routeLength="175.73" timeLoss="53.51"/>
    </personinfo>
    <personinfo id="11" depart="1068.00" type="DEFAULT_PEDTYPE" speedFactor="1.12" duration="267.00" waitingTime="148.00" timeLoss="37.76" traveltime="119.00">
        <ride waitingTime="148.00" vehicle="t_1" depart="1216.00" arrival="1335.00" arrivalPos="78.65" duration="119.00" routeLength="180.11" timeLoss="37.76"/>
    </personinfo>
    <personinfo id="10" depart="991.00" type="DEFAULT_PEDTYPE" speedFactor="1.05" duration="363.00" waitingTime="245.00" timeLoss="18.86" traveltime="118.00">
        <ride waitingTime="245.00" vehicle="t_0" depart="1236.00" arrival="1354.00" arrivalPos="79.20" duration="118.00" routeLength="450.86" timeLoss="18.86"/>
    </personinfo>
    <personinfo id="12" depart="1266.00" type="DEFAULT_PEDTYPE" speedFactor="0.99" duration="232.00" waitingTime="146.00" timeLoss="5.82" traveltime="86.00">
        <ride waitingTime="146.00" vehicle="t_1" depart="1412.00" arrival="1498.00" arrivalPos="0.20" duration="86.00" routeLength="178.58" timeLoss="5.82"/>
    </personinfo>
    <personinfo id="13" depart="1291.00" type="DEFAULT_PEDTYPE" speedFactor="0.93" duration="247.00" waitingTime="119.00" timeLoss="31.93" traveltime="128.00">
        <ride waitingTime="119.00" vehicle="t_0" depart="1410.00" arrival="1538.00" arrivalPos="78.65" duration="128.00" routeLength="391.72" timeLoss="31.93"/>
    </personinfo>
    <personinfo id="14" depart="1507.00" type="DEFAULT_PEDTYPE" speedFactor="0.88" duration="221.00" waitingTime="131.00" timeLoss="4.02" traveltime="90.00">
        <ride waitingTime="131.00" vehicle="t_1" depart="1638.00" arrival="1728.00" arrivalPos="78.65" duration="90.00" routeLength="276.21" timeLoss="4.02"/>
    </personinfo>
    <personinfo id="15" depart="1533.00" type="DEFAULT_PEDTYPE" speedFactor="0.94" duration="247.00" waitingTime="139.00" timeLoss="9.00" traveltime="108.00">
        <ride waitingTime="139.00" vehicle="t_0" depart="1672.00" arrival="1780.00" arrivalPos="78.65" duration="108.00" routeLength="372.94" timeLoss="9.00"/>
    </personinfo>
    <personinfo id="17" depart="1586.00" type="DEFAULT_PEDTYPE" speedFactor="1.16" duration="301.00" waitingTime="185.00" timeLoss="21.80" traveltime="116.00">
        <ride waitingTime="185.00" vehicle="t_1" depart="1771.00" arrival="1887.00" arrivalPos="83.20" duration="116.00" routeLength="361.43" timeLoss="21.80"/>
    </personinfo>
    <personinfo id="16" depart="1559.00" type="DEFAULT_PEDTYPE" speedFactor="0.94" duration="360.00" waitingTime="143.00" timeLoss="60.86" traveltime="217.00">
        <ride waitingTime="143.00" vehicle="t_0" depart="1702.00" arrival="1919.00" arrivalPos="79.20" duration="217.00" routeLength="316.41" timeLoss="60.86"/>
    </personinfo>
    <personinfo id="19" depart="1736.00" type="DEFAULT_PEDTYPE" speedFactor="1.01" duration="376.00" waitingTime="259.00" timeLoss="17.27" traveltime="117.00">
        <ride waitingTime="259.00" vehicle="t_1" depart="1995.00" arrival="2112.00" arrivalPos="83.20" duration="117.00" routeLength="403.85" timeLoss="17.27"/>
    </personinfo>
    <personinfo id="18" depart="1663.00" type="DEFAULT_PEDTYPE" speedFactor="1.02" duration="492.00" waitingTime="325.00" timeLoss="55.29" traveltime="167.00">
        <ride waitingTime="325.00" vehicle="t_0" depart="1988.00" arrival="2155.00" arrivalPos="83.20" duration="167.00" routeLength="577.45" timeLoss="55.29"/>
    </personinfo>
    <personinfo id="20" depart="1953.00" type="DEFAULT_PEDTYPE" speedFactor="0.97" duration="318.00" waitingTime="228.00" timeLoss="4.27" traveltime="90.00">
        <ride waitingTime="228.00" vehicle="t_0" depart="2181.00" arrival="2271.00" arrivalPos="83.20" duration="90.00" routeLength="266.12" timeLoss="4.27"/>
    </personinfo>
    <personinfo id="21" depart="2159.00" type="DEFAULT_PEDTYPE" speedFactor="0.89" duration="150.00" waitingTime="54.00" timeLoss="7.06" traveltime="96.00">
        <ride waitingTime="54.00" vehicle="t_1" depart="2213.00" arrival="2309.00" arrivalPos="0.20" duration="96.00" routeLength="299.92" timeLoss="7.06"/>
    </personinfo>
    <personinfo id="22" depart="2182.00" type="DEFAULT_PEDTYPE" speedFactor="0.83" duration="330.00" waitingTime="174.00" timeLoss="56.46" traveltime="156.00">
        <ride waitingTime="174.00" vehicle="t_0" depart="2356.00" arrival="2512.00" arrivalPos="83.20" duration="156.00" routeLength="476.10" timeLoss="56.46"/>
    </personinfo>
    <personinfo id="23" depart="2390.00" type="DEFAULT_PEDTYPE" speedFactor="0.87" duration="216.00" waitingTime="50.00" timeLoss="52.82" traveltime="166.00">
        <ride waitingTime="50.00" vehicle="t_1" depart="2440.00" arrival="2606.00" arrivalPos="83.20" duration="166.00" routeLength="577.45" timeLoss="52.82"/>
    </personinfo>
    <personinfo id="24" depart="2470.00" type="DEFAULT_PEDTYPE" speedFactor="0.92" duration="219.00" waitingTime="121.00" timeLoss="7.83" traveltime="98.00">
        <ride waitingTime="121.00" vehicle="t_0" depart="2591.00" arrival="2689.00" arrivalPos="79.20" duration="98.00" routeLength="352.22" timeLoss="7.83"/>
    </personinfo>
    <personinfo id="25" depart="2496.00" type="DEFAULT_PEDTYPE" speedFactor="0.95" duration="387.00" waitingTime="240.00" timeLoss="52.72" traveltime="147.00">
        <ride waitingTime="240.00" vehicle="t_1" depart="2736.00" arrival="2883.00" arrivalPos="0.20" duration="147.00" routeLength="276.69" timeLoss="52.72"/>
    </personinfo>
    <personinfo id="27" depart="2760.00" type="DEFAULT_PEDTYPE" speedFactor="0.93" duration="252.00" waitingTime="83.00" timeLoss="73.85" traveltime="169.00">
        <ride waitingTime="83.00" vehicle="t_0" depart="2843.00" arrival="3012.00" arrivalPos="78.65" duration="169.00" routeLength="386.51" timeLoss="73.85"/>
    </personinfo>
    <personinfo id="26" depart="2568.00" type="DEFAULT_PEDTYPE" speedFactor="1.13" duration="476.00" waitingTime="229.00" timeLoss="77.86" traveltime="247.00">
        <ride waitingTime="229.00" vehicle="t_1" depart="2797.00" arrival="3044.00" arrivalPos="79.20" duration="247.00" routeLength="448.28" timeLoss="77.86"/>
    </personinfo>
    <personinfo id="28" depart="2841.00" type="DEFAULT_PEDTYPE" speedFactor="1.18" duration="365.00" waitingTime="227.00" timeLoss="38.06" traveltime="138.00">
        <ride waitingTime="227.00" vehicle="t_0" depart="3068.00" arrival="3206.00" arrivalPos="79.20" duration="138.00" routeLength="434.34" timeLoss="38.06"/>
    </personinfo>
    <personinfo id="29" depart="2865.00" type="DEFAULT_PEDTYPE" speedFactor="1.15" duration="371.00" waitingTime="227.00" timeLoss="41.42" traveltime="144.00">
        <ride waitingTime="227.00" vehicle="t_1" depart="3092.00" arrival="3236.00" arrivalPos="83.20" duration="144.00" routeLength="476.89" timeLoss="41.42"/>
    </personinfo>
    <personinfo id="30" depart="3067.00" type="DEFAULT_PEDTYPE" speedFactor="1.01" duration="311.00" waitingTime="194.00" timeLoss="15.31" traveltime="117.00">
        <ride waitingTime="194.00" vehicle="t_1" depart="3261.00" arrival="3378.00" arrivalPos="78.65" duration="117.00" routeLength="449.68" timeLoss="15.31"/>
    </personinfo>
    <personinfo id="31" depart="3148.00" type="DEFAULT_PEDTYPE" speedFactor="1.17" duration="263.00" waitingTime="154.00" timeLoss="24.29" traveltime="109.00">
        <ride waitingTime="154.00" vehicle="t_0" depart="3302.00" arrival="3411.00" arrivalPos="78.65" duration="109.00" routeLength="264.80" timeLoss="24.29"/>
    </personinfo>
    <personinfo id="32" depart="3175.00" type="DEFAULT_PEDTYPE" speedFactor="0.99" duration="456.00" waitingTime="266.00" timeLoss="95.42" traveltime="190.00">
        <ride waitingTime="266.00" vehicle="t_0" depart="3441.00" arrival="3631.00" arrivalPos="78.65" duration="190.00" routeLength="368.79" timeLoss="95.42"/>
    </personinfo>
    <personinfo id="33" depart="3244.00" type="DEFAULT_PEDTYPE" speedFactor="1.02" duration="429.00" waitingTime="284.00" timeLoss="44.01" traveltime="145.00">
        <ride waitingTime="284.00" vehicle="t_1" depart="3528.00" arrival="3673.00" arrivalPos="78.65" duration="145.00" routeLength="451.27" timeLoss="44.01"/>
    </personinfo>
    <personinfo id="34" depart="3270.00" type="DEFAULT_PEDTYPE" speedFactor="0.97" duration="594.00" waitingTime="417.00" timeLoss="85.95" traveltime="177.00">
        <ride waitingTime="417.00" vehicle="t_0" depart="3687.00" arrival="3864.00" arrivalPos="83.20" duration="177.00" routeLength="361.50" timeLoss="85.95"/>
    </personinfo>
    <personinfo id="35" depart="3346.00" type="DEFAULT_PEDTYPE" speedFactor="1.18" duration="559.00" waitingTime="442.00" timeLoss="32.50" traveltime="117.00">
        <ride waitingTime="442.00" vehicle="t_1" depart="3788.00" arrival="3905.00" arrivalPos="79.20" duration="117.00" routeLength="261.04" timeLoss="32.50"/>
    </personinfo>
    <personinfo id="36" depart="3566.00" type="DEFAULT_PEDTYPE" speedFactor="1.10" duration="478.00" waitingTime="357.00" timeLoss="25.26" traveltime="121.00">
        <ride waitingTime="357.00" vehicle="t_0" depart="3923.00" arrival="4044.00" arrivalPos="78.65" duration="121.00" routeLength="387.89" timeLoss="25.26"/>
    </personinfo>
    <personinfo id="37" depart="3780.00" type="DEFAULT_PEDTYPE" speedFactor="0.90" duration="452.00" waitingTime="278.00" timeLoss="47.81" traveltime="174.00">
        <ride waitingTime="278.00" vehicle="t_1" depart="4058.00" arrival="4232.00" arrivalPos="83.20" duration="174.00" routeLength="790.02" timeLoss="47.81"/>
    </personinfo>
    <personinfo id="38" depart="3965.00" type="DEFAULT_PEDTYPE" speedFactor="1.03" duration="385.00" waitingTime="235.00" timeLoss="62.73" traveltime="150.00">
        <ride waitingTime="235.00" vehicle="t_0" depart="4200.00" arrival="4350.00" arrivalPos="79.20" duration="150.00" routeLength="280.69" timeLoss="62.73"/>
    </personinfo>
    <personinfo id="39" depart="4044.00" type="DEFAULT_PEDTYPE" speedFactor="0.96" duration="442.00" waitingTime="310.00" timeLoss="43.85" traveltime="132.00">
        <ride waitingTime="310.00" vehicle="t_1" depart="4354.00" arrival="4486.00" arrivalPos="83.20" duration="132.00" routeLength="262.25" timeLoss="43.85"/>
    </personinfo>
    <personinfo id="40" depart="4118.00" type="DEFAULT_PEDTYPE" speedFactor="1.09" duration="436.00" waitingTime="344.00" timeLoss="7.67" traveltime="92.00">
        <ride waitingTime="344.00" vehicle="t_0" depart="4462.00" arrival="4554.00" arrivalPos="0.20" duration="92.00" routeLength="255.32" timeLoss="7.67"/>
    </personinfo>
    <personinfo id="41" depart="4333.00" type="DEFAULT_PEDTYPE" speedFactor="1.04" duration="361.00" waitingTime="265.00" timeLoss="7.22" traveltime="96.00">
        <ride waitingTime="265.00" vehicle="t_1" depart="4598.00" arrival="4694.00" arrivalPos="0.20" duration="96.00" routeLength="293.00" timeLoss="7.22"/>
    </personinfo>
    <personinfo id="42" depart="4358.00" type="DEFAULT_PEDTYPE" speedFactor="1.04" duration="398.00" waitingTime="233.00" timeLoss="55.42" traveltime="165.00">
        <ride waitingTime="233.00" vehicle="t_0" depart="4591.00" arrival="4756.00" arrivalPos="78.65" duration="165.00" routeLength="564.39" timeLoss="55.42"/>
    </personinfo>
    <personinfo id="43" depart="4438.00" type="DEFAULT_PEDTYPE" speedFactor="1.09" duration="452.00" waitingTime="349.00" timeLoss="20.11" traveltime="103.00">
        <ride waitingTime="349.00" vehicle="t_1" depart="4787.00" arrival="4890.00" arrivalPos="79.20" duration="103.00" routeLength="206.86" timeLoss="20.11"/>
    </personinfo>
    <personinfo id="44" depart="4461.00" type="DEFAULT_PEDTYPE" speedFactor="1.00" duration="496.00" waitingTime="365.00" timeLoss="29.20" traveltime="131.00">
        <ride waitingTime="365.00" vehicle="t_0" depart="4826.00" arrival="4957.00" arrivalPos="78.65" duration="131.00" routeLength="464.31" timeLoss="29.20"/>
    </personinfo>
    <personinfo id="45" depart="4680.00" type="DEFAULT_PEDTYPE" speedFactor="0.90" duration="483.00" waitingTime="286.00" timeLoss="86.32" traveltime="197.00">
        <ride waitingTime="286.00" vehicle="t_1" depart="4966.00" arrival="5163.00" arrivalPos="83.20" duration="197.00" routeLength="553.31" timeLoss="86.32"/>
    </personinfo>
    <personinfo id="46" depart="4872.00" type="DEFAULT_PEDTYPE" speedFactor="0.88" duration="366.00" waitingTime="266.00" timeLoss="8.29" traveltime="100.00">
        <ride waitingTime="266.00" vehicle="t_0" depart="5138.00" arrival="5238.00" arrivalPos="0.20" duration="100.00" routeLength="314.69" timeLoss="8.29"/>
    </personinfo>
    <personinfo id="47" depart="4953.00" type="DEFAULT_PEDTYPE" speedFactor="0.85" duration="443.00" waitingTime="308.00" timeLoss="40.01" traveltime="135.00">
        <ride waitingTime="308.00" vehicle="t_1" depart="5261.00" arrival="5396.00" arrivalPos="83.20" duration="135.00" routeLength="372.99" timeLoss="40.01"/>
    </personinfo>
    <personinfo id="48" depart="5024.00" type="DEFAULT_PEDTYPE" speedFactor="0.85" duration="406.00" waitingTime="303.00" timeLoss="10.53" traveltime="103.00">
        <ride waitingTime="303.00" vehicle="t_0" depart="5327.00" arrival="5430.00" arrivalPos="79.20" duration="103.00" routeLength="340.14" timeLoss="10.53"/>
    </personinfo>
    <personinfo id="49" depart="5047.00" type="DEFAULT_PEDTYPE" speedFactor="1.17" duration="479.00" waitingTime="372.00" timeLoss="9.87" traveltime="107.00">
        <ride waitingTime="372.00" vehicle="t_1" depart="5419.00" arrival="5526.00" arrivalPos="78.65" duration="107.00" routeLength="376.45" timeLoss="9.87"/>
    </personinfo>
    <personinfo id="50" depart="5075.00" type="DEFAULT_PEDTYPE" speedFactor="1.02" duration="534.00" waitingTime="414.00" timeLoss="26.14" traveltime="120.00">
        <ride waitingTime="414.00" vehicle="t_0" depart="5489.00" arrival="5609.00" arrivalPos="83.20" duration="120.00" routeLength="363.56" timeLoss="26.14"/>
    </personinfo>
    <personinfo id="52" depart="5122.00" type="DEFAULT_PEDTYPE" speedFactor="1.00" duration="668.00" waitingTime="566.00" timeLoss="7.00" traveltime="102.00">
        <ride waitingTime="566.00" vehicle="t_0" depart="5688.00" arrival="5790.00" arrivalPos="78.65" duration="102.00" routeLength="362.19" timeLoss="7.00"/>
    </personinfo>
    <personinfo id="51" depart="5098.00" type="DEFAULT_PEDTYPE" speedFactor="1.10" duration="738.00" waitingTime="599.00" timeLoss="49.50" traveltime="139.00">
        <ride waitingTime="599.00" vehicle="t_1" depart="5697.00" arrival="5836.00" arrivalPos="79.20" duration="139.00" routeLength="279.47" timeLoss="49.50"/>
    </personinfo>
    <personinfo id="53" depart="5149.00" type="DEFAULT_PEDTYPE" speedFactor="1.00" duration="791.00" waitingTime="709.00" timeLoss="2.98" traveltime="82.00">
        <ride waitingTime="709.00" vehicle="t_0" depart="5858.00" arrival="5940.00" arrivalPos="78.65" duration="82.00" routeLength="162.24" timeLoss="2.98"/>
    </personinfo>
    <personinfo id="54" depart="5337.00" type="DEFAULT_PEDTYPE" speedFactor="0.90" duration="645.00" waitingTime="561.00" timeLoss="4.38" traveltime="84.00">
        <ride waitingTime="561.00" vehicle="t_1" depart="5898.00" arrival="5982.00" arrivalPos="83.20" duration="84.00" routeLength="164.02" timeLoss="4.38"/>
    </personinfo>
    <personinfo id="55" depart="5543.00" type="DEFAULT_PEDTYPE" speedFactor="1.14" duration="666.00" waitingTime="538.00" timeLoss="38.09" traveltime="128.00">
        <ride waitingTime="538.00" vehicle="t_0" depart="6081.00" arrival="6209.00" arrivalPos="78.65" duration="128.00" routeLength="299.44" timeLoss="38.09"/>
    </personinfo>
    <personinfo id="56" depart="5612.00" type="DEFAULT_PEDTYPE" speedFactor="1.02" duration="683.00" waitingTime="516.00" timeLoss="48.43" traveltime="167.00">
        <ride waitingTime="516.00" vehicle="t_1" depart="6128.00" arrival="6295.00" arrivalPos="83.20" duration="167.00" routeLength="688.73" timeLoss="48.43"/>
    </personinfo>
    <personinfo id="57" depart="5680.00" type="DEFAULT_PEDTYPE" speedFactor="0.97" duration="664.00" waitingTime="629.00" timeLoss="8.08" traveltime="35.00">
        <ride waitingTime="629.00" vehicle="t_0" depart="6309.00" arrival="6344.00" arrivalPos="0.19" duration="35.00" routeLength="282.60" timeLoss="8.08"/>
    </personinfo>
    <personinfo id="58" depart="5869.00" type="DEFAULT_PEDTYPE" speedFactor="1.08" duration="622.00" waitingTime="464.00" timeLoss="51.39" traveltime="158.00">
        <ride waitingTime="464.00" vehicle="t_1" depart="6333.00" arrival="6491.00" arrivalPos="83.20" duration="158.00" routeLength="555.68" timeLoss="51.39"/>
    </personinfo>
    <personinfo id="59" depart="6051.00" type="DEFAULT_PEDTYPE" speedFactor="1.12" duration="512.00" waitingTime="353.00" timeLoss="61.58" traveltime="159.00">
        <ride waitingTime="353.00" vehicle="t_0" depart="6404.00" arrival="6563.00" arrivalPos="83.20" duration="159.00" routeLength="461.48" timeLoss="61.58"/>
    </personinfo>
    <personinfo id="60" depart="6120.00" type="DEFAULT_PEDTYPE" speedFactor="1.02" duration="569.00" waitingTime="450.00" timeLoss="41.36" traveltime="119.00">
        <ride waitingTime="450.00" vehicle="t_1" depart="6570.00" arrival="6689.00" arrivalPos="0.20" duration="119.00" routeLength="176.29" timeLoss="41.36"/>
    </personinfo>
    <personinfo id="61" depart="6319.00" type="DEFAULT_PEDTYPE" speedFactor="0.99" duration="560.00" waitingTime="450.00" timeLoss="8.91" traveltime="110.00">
        <ride waitingTime="450.00" vehicle="t_0" depart="6769.00" arrival="6879.00" arrivalPos="83.20" duration="110.00" routeLength="457.23" timeLoss="8.91"/>
    </personinfo>
    <personinfo id="62" depart="6536.00" type="DEFAULT_PEDTYPE" speedFactor="0.94" duration="346.00" waitingTime="194.00" timeLoss="56.49" traveltime="152.00">
        <ride waitingTime="194.00" vehicle="t_1" depart="6730.00" arrival="6882.00" arrivalPos="83.20" duration="152.00" routeLength="350.23" timeLoss="56.49"/>
    </personinfo>
    <personinfo id="64" depart="6678.00" type="DEFAULT_PEDTYPE" speedFactor="0.91" duration="385.00" waitingTime="286.00" timeLoss="5.09" traveltime="99.00">
        <ride waitingTime="286.00" vehicle="t_0" depart="6964.00" arrival="7063.00" arrivalPos="79.20" duration="99.00" routeLength="376.16" timeLoss="5.09"/>
    </personinfo>
    <personinfo id="63" depart="6608.00" type="DEFAULT_PEDTYPE" speedFactor="0.88" duration="464.00" waitingTime="322.00" timeLoss="38.67" traveltime="142.00">
        <ride waitingTime="322.00" vehicle="t_1" depart="6930.00" arrival="7072.00" arrivalPos="78.65" duration="142.00" routeLength="452.07" timeLoss="38.67"/>
    </personinfo>
    <personinfo id="66" depart="6933.00" type="DEFAULT_PEDTYPE" speedFactor="1.04" duration="303.00" waitingTime="197.00" timeLoss="11.99" traveltime="106.00">
        <ride waitingTime="197.00" vehicle="t_0" depart="7130.00" arrival="7236.00" arrivalPos="78.65" duration="106.00" routeLength="342.25" timeLoss="11.99"/>
    </personinfo>
    <personinfo id="65" depart="6751.00" type="DEFAULT_PEDTYPE" speedFactor="0.91" duration="486.00" waitingTime="378.00" timeLoss="19.45" traveltime="108.00">
        <ride waitingTime="378.00" vehicle="t_1" depart="7129.00" arrival="7237.00" arrivalPos="79.20" duration="108.00" routeLength="305.44" timeLoss="19.45"/>
    </personinfo>
    <personinfo id="67" depart="6956.00" type="DEFAULT_PEDTYPE" speedFactor="1.02" duration="462.00" waitingTime="326.00" timeLoss="50.96" traveltime="136.00">
        <ride waitingTime="326.00" vehicle="t_0" depart="7282.00" arrival="7418.00" arrivalPos="79.20" duration="136.00" routeLength="246.32" timeLoss="50.96"/>
    </personinfo>
    <personinfo id="68" depart="6979.00" type="DEFAULT_PEDTYPE" speedFactor="1.02" duration="520.00" waitingTime="418.00" timeLoss="6.83" traveltime="102.00">
        <ride waitingTime="418.00" vehicle="t_1" depart="7397.00" arrival="7499.00" arrivalPos="79.20" duration="102.00" routeLength="376.27" timeLoss="6.83"/>
    </personinfo>
    <personinfo id="69" depart="7049.00" type="DEFAULT_PEDTYPE" speedFactor="0.97" duration="554.00" waitingTime="454.00" timeLoss="11.15" traveltime="100.00">
        <ride waitingTime="454.00" vehicle="t_0" depart="7503.00" arrival="7603.00" arrivalPos="78.65" duration="100.00" routeLength="299.42" timeLoss="11.15"/>
    </personinfo>
    <personinfo id="70" depart="7120.00" type="DEFAULT_PEDTYPE" speedFactor="0.94" duration="560.00" waitingTime="402.00" timeLoss="55.90" traveltime="158.00">
        <ride waitingTime="402.00" vehicle="t_1" depart="7522.00" arrival="7680.00" arrivalPos="83.20" duration="158.00" routeLength="442.74" timeLoss="55.90"/>
    </personinfo>
    <personinfo id="71" depart="7304.00" type="DEFAULT_PEDTYPE" speedFactor="1.06" duration="466.00" waitingTime="335.00" timeLoss="49.52" traveltime="131.00">
        <ride waitingTime="335.00" vehicle="t_0" depart="7639.00" arrival="7770.00" arrivalPos="83.20" duration="131.00" routeLength="199.34" timeLoss="49.52"/>
    </personinfo>
    <personinfo id="72" depart="7332.00" type="DEFAULT_PEDTYPE" speedFactor="0.96" duration="506.00" waitingTime="395.00" timeLoss="7.84" traveltime="111.00">
        <ride waitingTime="395.00" vehicle="t_1" depart="7727.00" arrival="7838.00" arrivalPos="83.20" duration="111.00" routeLength="445.25" timeLoss="7.84"/>
    </personinfo>
    <personinfo id="73" depart="7355.00" type="DEFAULT_PEDTYPE" speedFactor="0.98" duration="699.00" waitingTime="548.00" timeLoss="31.20" traveltime="151.00">
        <ride waitingTime="548.00" vehicle="t_0" depart="7903.00" arrival="8054.00" arrivalPos="83.20" duration="151.00" routeLength="629.74" timeLoss="31.20"/>
    </personinfo>
    <personinfo id="74" depart="7382.00" type="DEFAULT_PEDTYPE" speedFactor="1.03" duration="715.00" waitingTime="610.00" timeLoss="16.46" traveltime="105.00">
        <ride waitingTime="610.00" vehicle="t_1" depart="7992.00" arrival="8097.00" arrivalPos="78.65" duration="105.00" routeLength="256.08" timeLoss="16.46"/>
    </personinfo>
    <personinfo id="77" depart="7727.00" type="DEFAULT_PEDTYPE" speedFactor="1.09" duration="481.00" waitingTime="245.00" timeLoss="56.59" traveltime="236.00">
        <ride waitingTime="245.00" vehicle="t_0" depart="7972.00" arrival="8208.00" arrivalPos="83.20" duration="236.00" routeLength="648.10" timeLoss="56.59"/>
    </personinfo>
    <personinfo id="78" depart="7751.00" type="DEFAULT_PEDTYPE" speedFactor="1.03" duration="525.00" waitingTime="241.00" timeLoss="97.61" traveltime="284.00">
        <ride waitingTime="241.00" vehicle="t_1" depart="7992.00" arrival="8276.00" arrivalPos="83.20" duration="284.00" routeLength="650.35" timeLoss="97.61"/>
    </personinfo>
    <personinfo id="75" depart="7449.00" type="DEFAULT_PEDTYPE" speedFactor="0.98" duration="889.00" waitingTime="792.00" timeLoss="8.06" traveltime="97.00">
        <ride waitingTime="792.00" vehicle="t_0" depart="8241.00" arrival="8338.00" arrivalPos="79.20" duration="97.00" routeLength="306.17" timeLoss="8.06"/>
    </personinfo>
    <personinfo id="76" depart="7521.00" type="DEFAULT_PEDTYPE" speedFactor="1.01" duration="888.00" waitingTime="789.00" timeLoss="12.69" traveltime="99.00">
        <ride waitingTime="789.00" vehicle="t_1" depart="8310.00" arrival="8409.00" arrivalPos="83.20" duration="99.00" routeLength="253.77" timeLoss="12.69"/>
    </personinfo>
    <personinfo id="79" depart="7953.00" type="DEFAULT_PEDTYPE" speedFactor="1.00" duration="508.00" waitingTime="433.00" timeLoss="2.38" traveltime="75.00">
        <ride waitingTime="433.00" vehicle="t_0" depart="8386.00" arrival="8461.00" arrivalPos="78.65" duration="75.00" routeLength="94.91" timeLoss="2.38"/>
    </personinfo>
    <personinfo id="80" depart="7976.00" type="DEFAULT_PEDTYPE" speedFactor="1.02" duration="704.00" waitingTime="556.00" timeLoss="51.91" traveltime="148.00">
        <ride waitingTime="556.00" vehicle="t_1" depart="8532.00" arrival="8680.00" arrivalPos="79.20" duration="148.00" routeLength="372.71" timeLoss="51.91"/>
    </personinfo>
    <personinfo id="81" depart="8162.00" type="DEFAULT_PEDTYPE" speedFactor="0.97" duration="598.00" waitingTime="458.00" timeLoss="38.96" traveltime="140.00">
        <ride waitingTime="458.00" vehicle="t_0" depart="8620.00" arrival="8760.00" arrivalPos="78.65" duration="140.00" routeLength="447.16" timeLoss="38.96"/>
    </personinfo>
    <personinfo id="82" depart="8185.00" type="DEFAULT_PEDTYPE" speedFactor="1.15" duration="645.00" waitingTime="550.00" timeLoss="6.54" traveltime="95.00">
        <ride waitingTime="550.00" vehicle="t_1" depart="8735.00" arrival="8830.00" arrivalPos="0.20" duration="95.00" routeLength="278.59" timeLoss="6.54"/>
    </personinfo>
    <personinfo id="84" depart="8413.00" type="DEFAULT_PEDTYPE" speedFactor="1.00" duration="509.00" waitingTime="362.00" timeLoss="41.47" traveltime="147.00">
        <ride waitingTime="362.00" vehicle="t_0" depart="8775.00" arrival="8922.00" arrivalPos="78.65" duration="147.00" routeLength="539.42" timeLoss="41.47"/>
    </personinfo>
    <personinfo id="83" depart="8210.00" type="DEFAULT_PEDTYPE" speedFactor="0.98" duration="739.00" waitingTime="556.00" timeLoss="31.73" traveltime="183.00">
        <ride waitingTime="556.00" vehicle="t_1" depart="8766.00" arrival="8949.00" arrivalPos="79.20" duration="183.00" routeLength="271.38" timeLoss="31.73"/>
    </personinfo>