<?xml version="1.0" encoding="UTF-8"?>

<!-- generated on 2026-04-01T15:50:30.126607+08:00 by Eclipse SUMO sumo 1.26.0
<sumoConfiguration xmlns:xsi="http://www.w3.org/2001/XMLSchema-instance" xsi:noNamespaceSchemaLocation="http://sumo.dlr.de/xsd/sumoConfiguration.xsd">

    <input>
        <net-file value="D:\6Sumo\SunwayMapDQN\SunwaySmallMap\osm.net.xml"/>
        <route-files value="D:\6Sumo\SunwayMapDQN\SunwaySmallMap\self_request.rou.xml,D:\6Sumo\SunwayMapDQN\SunwaySmallMap\taxi_more.rou.xml"/>
    </input>

    <output>
        <tripinfo-output value="D:\6Sumo\SunwayMapDQN\SunwaySmallMap\tripinfos.xml"/>
        <statistic-output value="D:\6Sumo\SunwayMapDQN\SunwaySmallMap\stats.xml"/>
    </output>

    <time>
        <step-length value="1.0"/>
    </time>

    <processing>
        <ignore-route-errors value="true"/>
        <tls.actuated.jam-threshold value="30"/>
    </processing>

    <routing>
        <device.rerouting.adaptation-steps value="18"/>
        <device.rerouting.adaptation-interval value="10"/>
    </routing>

    <report>
        <verbose value="true"/>
        <duration-log.statistics value="true"/>
        <no-step-log value="true"/>
    </report>

    <taxi_device>
        <device.taxi.dispatch-algorithm value="traci"/>
        <device.taxi.idle-algorithm value="stop"/>
    </taxi_device>

    <traci_server>
        <remote-port value="54460"/>
    </traci_server>

    <gui_only>
        <gui-settings-file value="D:\6Sumo\SunwayMapDQN\SunwaySmallMap\osm.view.xml"/>
    </gui_only>

</sumoConfiguration>
-->

<tripinfos xmlns:xsi="http://www.w3.org/2001/XMLSchema-instance" xsi:noNamespaceSchemaLocation="http://sumo.dlr.de/xsd/tripinfo_file.xsd">
    <personinfo id="4" depart="45.00" type="DEFAULT_PEDTYPE" speedFactor="1.16" duration="395.00" waitingTime="218.00" timeLoss="14.86" traveltime="177.00">
        <ride waitingTime="218.00" vehicle="t_1" depart="263.00" arrival="440.00" arrivalPos="109.06" duration="177.00" routeLength="707.02" timeLoss="14.86"/>
    </personinfo>
    <personinfo id="2" depart="33.00" type="DEFAULT_PEDTYPE" speedFactor="0.94" duration="501.00" waitingTime="320.00" timeLoss="19.36" traveltime="181.00">
        <ride waitingTime="320.00" vehicle="t_7" depart="353.00" arrival="534.00" arrivalPos="123.57" duration="181.00" routeLength="1666.58" timeLoss="19.36"/>
    </personinfo>
    <personinfo id="1" depart="23.00" type="DEFAULT_PEDTYPE" speedFactor="0.88" duration="527.00" waitingTime="268.00" timeLoss="59.28" traveltime="259.00">
        <ride waitingTime="268.00" vehicle="t_14" depart="291.00" arrival="550.00" arrivalPos="59.10" duration="259.00" routeLength="2341.13" timeLoss="59.28"/>
    </personinfo>
</tripinfos>
